/*--------------------------------*- C++ -*----------------------------------*\
| =========                 |                                                 |
| \\      /  F ield         | OpenFOAM: The Open Source CFD Toolbox           |
|  \\    /   O peration     | Version:  3.0.1                                 |
|   \\  /    A nd           | Web:      www.OpenFOAM.org                      |
|    \\/     M anipulation  |                                                 |
\*---------------------------------------------------------------------------*/
FoamFile
{
    version     2.0;
    format      ascii;
    class       volScalarField;
    location    "0";
    object      k;
}
// * * * * * * * * * * * * * * * * * * * * * * * * * * * * * * * * * * * * * //

dimensions      [0 2 -2 0 0 0 0];

internalField   uniform 0.2997135;

boundaryField
{
    defaultFaces
    {
        type            fixedValue;
        value           nonuniform 0();
    }
    body
    {
        type            kqRWallFunction;
        value           uniform 1e-10;
    }
    floor
    {
        type            kqRWallFunction;
        value           uniform 1e-10;
    }
    inlet
    {
        type            fixedValue;
        value           uniform 0.2997135;
    }
    outlet
    {
        type            zeroGradient;
    }
    wall
    {
        type            kqRWallFunction;
        value           uniform 1e-10;
    }
}


// ************************************************************************* //
